# vtk DataFile Version 3.0
mc33 case 6.1.2
ASCII
DATASET UNSTRUCTURED_GRID
POINTS 18 float
1 1 1
0.3 1 1
1 0.6 1
1 1 0
0 1 0.6
1 0.5 0

0 0 1
0 0.5 1
0.4 0 1
0 0 0.4

0 1 0
1 1 0
0 1 0.6
1 0.5 0

0 1 0
0 0.4 0
0 1 0.6
1 0.5 0

CELLS 4 22
6 0 1 2 3 4 5
4 6 7 8 9
4 10 11 12 13
4 14 15 16 17

CELL_TYPES 4
13
10
10 
10

POINT_DATA 18
SCALARS ElementID int 1
LOOKUP_TABLE default
0 0 0 0 0 0
1 1 1 1
2 2 2 2
3 3 3 3