# vtk DataFile Version 3.0
mc33 case 13.5.1 inverse
ASCII
DATASET UNSTRUCTURED_GRID
POINTS 30 float
0 1 0
0.3 1 0
0 0.6 0
0 1 0.2

1 1 0.6
1 0.7 1
0.8 1 1
0.3 1 0
0 0.6 0
0 1 0.2

1 1 0.6
1 0 0.7
1 0.7 1
0.3 1 0
0.6 0 0
0 0.6 0


1 1 0.6
0.3 1 0
1 0.4 0
1 0 0.7
0.6 0 0
1 0 0

1 1 1
0.8 1 1
1 0.7 1
1 1 0.6

0 0 1
0 0.4 1
0 0 0.6
0.3 0 1

CELLS 6 36
4 0 1 2 3
6 4 5 6 7 8 9
6 10 11 12 13 14 15
6 16 17 18 19 20 21
4 22 23 24 25
4 26 27 28 29

CELL_TYPES 6
10
13 13 13
10 10

POINT_DATA 30
SCALARS ElementID int 1
LOOKUP_TABLE default
0 0 0 0
1 1 1 1 1 1
2 2 2 2 2 2
3 3 3 3 3 3
4 4 4 4
5 5 5 5