# vtk DataFile Version 3.0
mc33 case 7.3
ASCII
DATASET UNSTRUCTURED_GRID
POINTS 52 float
1 1 1
1 1 0.5
0.2 1 1
1 0.2 1
0.5 0.5 0.5
0 0.7 1

0 0.7 1
0.7 0 1
1 0.2 1
0.5 0.5 0.5

0 0 1
0 0 0
0.5 0.5 0.5
0.7 0 1

1 0 0.6
0 0 0
0.5 0.5 0.5
0.7 0 1

1 0 0.6
1 0 0
0.5 0.5 0.5
0 0 0

1 0 0.6
1 0.6 0
0.5 0.5 0.5
1 0 0

1 0.6 0
0 0 0
0.5 0.5 0.5
1 0 0

0 0 0
1 0.6 0
0.5 0.5 0.5
0.7 1 0

0 1 0.6
0 1 0
0.5 0.5 0.5
0.7 1 0

0 1 0.6
0 1 0
0.5 0.5 0.5
0 0 0

0.7 1 0
0 1 0
0.5 0.5 0.5
0 0 0

0 0.7 1
0.7 0 1
0 0 1
0 1 0.6
0.5 0.5 0.5
0 0 0


CELLS 12 64
6 0 1 2 3 4 5
4 6 7 8 9
4 10 11 12 13
4 14 15 16 17
4 18 19 20 21
4 22 23 24 25
4 26 27 28 29
4 30 31 32 33
4 34 35 36 37
4 38 39 40 41
4 42 43 44 45
6 46 47 48 49 50 51


CELL_TYPES 12
13
10 10 10
10 10 10
10 10 10
10
13

POINT_DATA 52
SCALARS ElementID int 1
LOOKUP_TABLE default
0 0 0 0
1 1 1 1
2 2 2 2
3 3 3 3
4 4 4 4
5 5 5 5
6 6 6 6
7 7 7 7
8 8 8 8
9 9 9 9
10 10 10 10 10 10
11 11 11 11 11 11