# vtk DataFile Version 3.0
mc33 case 3.2 inverse
ASCII
DATASET UNSTRUCTURED_GRID
POINTS 14 float
1 1 1
1 0.8 1
1 1 0.6
0.4 1 1

0.4 1 1
1 1 0.6
1 0.8 1
0 0.6 1
0 0 0.7
0.4 0 1

0 0 1
0.4 0 1
0 0.6 1
0 0 0.7

CELLS 3 17
4 0 1 2 3
6 4 5 6 7 8 9
4 10 11 12 13

CELL_TYPES 3
10 
13
10

POINT_DATA 14
SCALARS ElementID int 1
LOOKUP_TABLE default
0 0 0 0
1 1 1 1 1 1 
2 2 2 2