# vtk DataFile Version 3.0
mc33 case 13.4 inverse
ASCII
DATASET UNSTRUCTURED_GRID
POINTS 36 float
1 1 1
0.8 1 1
1 0.7 1
1 1 0.6
0 1 0.5
0.5 0.5 0.5

1 1 0.6
0 1 0.5
0.5 0.5 0.5
0.3 1 0
0 1 0
0 0.6 0

0.5 0.5 0.5
0 1 0.5
0 0.6 0
0 1 0

0 1 0.5
0 0.6 0
0.5 0.5 0.5
0 0.2 1
0 0 0.6
0.3 0 1

0 0 1
0 0.2 1
0 0 0.6
0.3 0 1

0 0.6 0
0.5 0.5 0.5
0.3 1 0
0.8 0 0
1 0 0.3
1 0.3 0

1 0 0
0.8 0 0
1 0 0.3
1 0.3 0

CELLS 7 43
6 0 1 2 3 4 5
6 6 7 8 9 10 11
4 12 13 14 15
6 16 17 18 19 20 21
4 22 23 24 25
6 26 27 28 29 30 31
4 32 33 34 35

CELL_TYPES 7
13
13
10
13
10
13
10

POINT_DATA 36
SCALARS ElementID int 1
LOOKUP_TABLE default
0 0 0 0 0 0
1 1 1 1 1 1
2 2 2 2
3 3 3 3 3 3
4 5 5 5
6 6 6 6 6 6
7 7 7 7