# vtk DataFile Version 3.0
mc33 case 12.2 inverse
ASCII
DATASET UNSTRUCTURED_GRID
POINTS 28 float
0 0 0
0 0.3 0
0 0 0.2
0.4 0 0
1 0.6 0
0.5 0 1

0.5 0 1
1 0 1
1 0.4 1
0.4 0 0
1 0 0
1 0.6 0

1 0.6 0
0 0 0.2
0 0.3 0
1 0.4 1
0.5 0 1
0.5 0.5 0.5

0.5 0 1
1 0.4 1
0.5 0.5 0.5
0 0.8 1
0.4 1 1
0 1 0.7

0 1 1
0 0.8 1
0.4 1 1
0 1 0.7

CELLS 5 33
6 0 1 2 3 4 5
6 6 7 8 9 10 11
6 12 13 14 15 16 17
6 18 19 20 21 22 23
4 24 25 26 27

CELL_TYPES 5
13
13
13
13
10

POINT_DATA 28
SCALARS ElementID int 1
LOOKUP_TABLE default
5 5 5 5 5 5
6 6 6 6 6 6
7 7 7 7 7 7
8 8 8 8 8 8
9 9 9 9