# vtk DataFile Version 3.0
mc33 case 7.3 inverse
ASCII
DATASET UNSTRUCTURED_GRID
POINTS 26 float
0 1 1
0.2 1 1
0 0.7 1
0 1 0.6
1 1 0.5
0.5 0.5 0.5

0 1 0.6
1 1 0.5
0.5 0.5 0.5
0.7 1 0
1 1 0
1 0.6 0

0.5 0.5 0.5
1 1 0.5
1 0.6 0
1 1 0

1 1 0.5
1 0.6 0
0.5 0.5 0.5
1 0.2 1
1 0 0.6
0.7 0 1

1 0 1
1 0.2 1
1 0 0.6
0.7 0 1

CELLS 5 31
6 0 1 2 3 4 5
6 6 7 8 9 10 11
4 12 13 14 15
6 16 17 18 19 20 21
4 22 23 24 25

CELL_TYPES 5
13
13
10
13
10

POINT_DATA 26
SCALARS ElementID int 1
LOOKUP_TABLE default
12 12 12 12 12 12
13 13 13 13 13 13
14 14 14 14
15 15 15 15 15 15
16 16 16 16