# vtk DataFile Version 3.0
mc33 case 13.2
ASCII
DATASET UNSTRUCTURED_GRID
POINTS 36 float
0 1 1
0 1 0.2
0.8 1 1
0 0.2 1
0 0 0.6
0.3 0 1

1 0 1
0.3 0 1
0.8 1 1
0 0 0
0 0 0.6
0 1 0.2

1 0 1
1 0.7 1
0.8 1 1
0 0 0
0 0.6 0
0 1 0.2

0 0 0
0 0.6 0
0.3 1 0
1 0 1
1 0.7 1
1 1 0.6

0 0 0
0.6 0 0
0.3 1 0
1 0 1
1 0 0.7
1 1 0.6

1 1 0
1 1 0.6
0.3 1 0
1 0.4 0
1 0 0.7
0.6 0 0

CELLS 6 42
6 0 1 2 3 4 5
6 6 7 8 9 10 11
6 12 13 14 15 16 17
6 18 19 20 21 22 23
6 24 25 26 27 28 29
6 30 31 32 33 34 35

CELL_TYPES 6
13 13 13
13 13 13

POINT_DATA 36
SCALARS ElementID int 1
LOOKUP_TABLE default
5 5 5 5 5 5
6 6 6 6 6 6
7 7 7 7 7 7
8 8 8 8 8 8
9 9 9 9 9 9
10 10 10 10 10 10