# vtk DataFile Version 3.0
mc33 case 7.2
ASCII
DATASET UNSTRUCTURED_GRID
POINTS 30 float
1 0 0
0 0 1
0 0 0
0.7 1 0
0 1 0.6
0 1 0

0 1 0.6
0 0.7 1
0 0 1
0.7 1 0
1 0.6 0
1 0 0

0 0 1
0 0.7 1
0.2 1 1
1 0 0
1 0.6 0
1 1 0.5

0 0 1
0.7 0 1
0.2 1 1
1 0 0
1 0 0.6
1 1 0.5

1 1 1
1 1 0.5
0.2 1 1
1 0.2 1
1 0 0.6
0.7 0 1

CELLS 5 35
6 0 1 2 3 4 5
6 6 7 8 9 10 11
6 12 13 14 15 16 17
6 18 19 20 21 22 23
6 24 25 26 27 28 29

CELL_TYPES 5
13 13 13
13 13

POINT_DATA 30
SCALARS ElementID int 1
LOOKUP_TABLE default
4 4 4 4 4 4
5 5 5 5 5 5
6 6 6 6 6 6
7 7 7 7 7 7
8 8 8 8 8 8