# vtk DataFile Version 3.0
mc33 case 10.2
ASCII
DATASET UNSTRUCTURED_GRID
POINTS 36 float
1 1 1
1 1 0.3
0.4 1 1
1 0 1
1 0 0.4
0.2 0 1

1 1 0.3
0.5 0.5 0.5
1 0 0.4
0.2 0 1

1 1 0.3
0.4 1 1
0.5 0.5 0.5
0.2 0 1

1 1 0.3
0.4 1 1
0.5 0.5 0.5
0 1 0.6

1 1 0.3
0 1 0.6
0.5 0.5 0.5
0.8 1 0

0.6 0 0
0 1 0.6
0.5 0.5 0.5
0.8 1 0

0.6 0 0
0 1 0.6
0.5 0.5 0.5
0 0 0.7

0 0 0
0 0 0.7
0.6 0 0
0 1 0
0 1 0.6
0.8 1 0

CELLS 8 44
6 0 1 2 3 4 5
4 6 7 8 9
4 10 11 12 13
4 14 15 16 17
4 18 19 20 21
4 22 23 24 25
4 26 27 28 29
6 30 31 32 33 34 35

CELL_TYPES 8
13
10 10 10
10 10 10
13

POINT_DATA 36
SCALARS ElementID int 1
LOOKUP_TABLE default
8 8 8 8 8 8
9 9 9 9
10 10 10 10
11 11 11 11
12 12 12 12
13 13 13 13
14 14 14 14
15 15 15 15 15 15