# vtk DataFile Version 3.0
mc33 case 4.2
ASCII
DATASET UNSTRUCTURED_GRID
POINTS 48 float

0.2 0 1
1 0 1
1 0.8 0
1 1 0.4

0 0 0.7
0.2 0 1
1 0.8 0
1 0 0

1 0 1
1 0 0
0.2 0 1
1 0.8 0

0 0 0
0 0 0.7
1 0.8 0
0.7 1 0

0 1 0
0 0 0.7
0 0.3 1
0.7 1 0

0 1 1
0 0.3 1
0 1 0 
0.7 1 0

0 0 0.7
0 0 0
1 0 0
1 0.8 0

0 0 0.7
0 0 0
0.7 1 0
0 1 0

1 1 1
1 1 0.4
1 0 1
0.2 0 1

1 1 1
1 1 0.4
0 0.3 1
0.2 0 1

1 1 1
1 1 0.4
0 0.3 1
0 1 1

1 1 0.4
0.7 1 0
0 0.3 1
0 1 1

CELLS 12 60
4 0 1 2 3
4 4 5 6 7
4 8 9 10 11
4 12 13 14 15
4 16 17 18 19
4 20 21 22 23
4 24 25 26 27
4 28 29 30 31
4 32 33 34 35
4 36 37 38 39
4 40 41 42 43
4 44 45 46 47

CELL_TYPES 12
10 10 10 10
10 10 10 10
10 10 10 10

POINT_DATA 48
SCALARS ElementID int 1
LOOKUP_TABLE default
3 3 3 3
4 4 4 4
5 5 5 5
6 6 6 6
7 7 7 7
8 8 8 8
9 9 9 9
10 10 10 10
11 11 11 11
12 12 12 12
13 13 13 13
14 14 14 14