# vtk DataFile Version 3.0
mc33 case 10.1.2 inverse
ASCII
DATASET UNSTRUCTURED_GRID
POINTS 24 float
0 0 1
0 0 0.7
0.2 0 1
0 1 1
0 1 0.6
0.4 1 1

0 0 0.7
0.2 0 1
0.6 0 0
0 1 0.6
0.4 1 1
0.8 1 0

0.4 1 1
1 1 0.3
0.8 1 0
0.2 0 1
1 0 0.4
0.6 0 0

1 1 0
1 1 0.3
0.8 1 0
1 0 0
1 0 0.4
0.6 0 0

CELLS 4 28
6 0 1 2 3 4 5
6 6 7 8 9 10 11
6 12 13 14 15 16 17
6 18 19 20 21 22 23

CELL_TYPES 4
13 13
13 13

POINT_DATA 24
SCALARS ElementID int 1
LOOKUP_TABLE default
2 2 2 2 2 2
3 3 3 3 3 3
4 4 4 4 4 4
5 5 5 5 5 5