# vtk DataFile Version 3.0
mc33 case 3.2
ASCII
DATASET UNSTRUCTURED_GRID
POINTS 24 float
0 0 0.7
1 1 0.6
0 1 0
0 0.6 1
0.4 1 1
0 1 1

0 0 0
0 0 0.7
1 0 0
0 1 0

0 0 0.7
1 1 0.6
1 0 0
0 1 0

1 1 0
1 1 0.6
1 0 0
0 1 0

0 0 0.7
1 1 0.6
1 0 0
0.4 0 1
1 0.8 1
1 0 1



CELLS 5 29
6 0 1 2 3 4 5
4 6 7 8 9 
4 10 11 12 13
4 14 15 16 17
6 18 19 20 21 22 23

CELL_TYPES 5
13
10 10 10
13

POINT_DATA 24
SCALARS ElementID int 1
LOOKUP_TABLE default
3 3 3 3 3 3
4 4 4 4
5 5 5 5
6 6 6 6
7 7 7 7 7 7