# vtk DataFile Version 3.0
mc33 case 7.2 inverse
ASCII
DATASET UNSTRUCTURED_GRID
POINTS 22 float
0 1 0
0.3 1 0
0 0.6 0
0 1 0.2

1 1 0.6
1 0.7 1
0.8 1 1
0.3 1 0
0 0.6 0
0 1 0.2

1 1 1
0.8 1 1
1 0.7 1
1 1 0.6

0 0 1
0 0.2 1
0 0 0.6
0.3 0 1

1 0 0
1 0.4 0
1 0 0.7
0.6 0 0

CELLS 5 27
4 0 1 2 3
6 4 5 6 7 8 9
4 10 11 12 13
4 14 15 16 17
4 18 19 20 21 

CELL_TYPES 5
10
13
10
10
10

POINT_DATA 22
SCALARS ElementID int 1
LOOKUP_TABLE default
0 0 0 0
1 1 1 1 1 1
2 2 2 2
3 3 3 3
4 4 4 4